TACC: Starting up job 3658011
TACC: Setting up parallel environment for MVAPICH2+mpispawn.
TACC: Starting parallel tasks...
 argument  1 = water.nw
                                         
                                         
 
 
              Northwest Computational Chemistry Package (NWChem) 6.3
              ------------------------------------------------------
 
 
                    Environmental Molecular Sciences Laboratory
                       Pacific Northwest National Laboratory
                                Richland, WA 99352
 
                              Copyright (c) 1994-2012
                       Pacific Northwest National Laboratory
                            Battelle Memorial Institute
 
             NWChem is an open-source computational chemistry package
                        distributed under the terms of the
                      Educational Community License (ECL) 2.0
             A copy of the license is included with this distribution
                              in the LICENSE.TXT file
 
                                  ACKNOWLEDGMENT
                                  --------------

            This software and its documentation were developed at the
            EMSL at Pacific Northwest National Laboratory, a multiprogram
            national laboratory, operated for the U.S. Department of Energy
            by Battelle under Contract Number DE-AC05-76RL01830. Support
            for this work was provided by the Department of Energy Office
            of Biological and Environmental Research, Office of Basic
            Energy Sciences, and the Office of Advanced Scientific Computing.


           Job information
           ---------------

    hostname        = c558-501.stampede.tacc.utexas.edu
    program         = /opt/apps/intel13/mvapich2_1_9/nwchem/6.3/bin/nwchem
    date            = Fri Jul 11 10:44:18 2014

    compiled        = Thu_Sep_26_16:10:21_2013
    source          = /admin/build/admin/rpms/stampede//BUILD/nwchem-6.3/
    nwchem branch   = 6.3
    nwchem revision = 24277
    ga revision     = 10379
    input           = water.nw
    prefix          = h2o_freq.
    data base       = ./h2o_freq.db
    status          = startup
    nproc           =        4
    time left       =     -1s



           Memory information
           ------------------

    heap     =   13107201 doubles =    100.0 Mbytes
    stack    =   13107201 doubles =    100.0 Mbytes
    global   =   26214400 doubles =    200.0 Mbytes (distinct from heap & stack)
    total    =   52428802 doubles =    400.0 Mbytes
    verify   = yes
    hardfail = no 


           Directory information
           ---------------------
 
  0 permanent = .
  0 scratch   = .
 
 
 
 
                                NWChem Input Module
                                -------------------
 
 

 Scaling coordinates for geometry "geometry" by  1.889725989
 (inverse scale =  0.529177249)

 C2V symmetry detected

          ------
          auto-z
          ------
 
 
                             Geometry "geometry" -> ""
                             -------------------------
 
 Output coordinates in angstroms (scale by  1.889725989 to convert to a.u.)
 
  No.       Tag          Charge          X              Y              Z
 ---- ---------------- ---------- -------------- -------------- --------------
    1 O                    8.0000     0.00000000     0.00000000     0.14142136
    2 H                    1.0000     0.70710678     0.00000000    -0.56568542
    3 H                    1.0000    -0.70710678     0.00000000    -0.56568542
 
      Atomic Mass 
      ----------- 
 
      O                 15.994910
      H                  1.007825
 

 Effective nuclear repulsion energy (a.u.)       8.8410208052

            Nuclear Dipole moment (a.u.) 
            ----------------------------
        X                 Y               Z
 ---------------- ---------------- ----------------
     0.0000000000     0.0000000000     0.0000000000
 
      Symmetry information
      --------------------
 
 Group name             C2v       
 Group number             16
 Group order               4
 No. of unique centers     2
 
      Symmetry unique atoms
 
     1    2
 


                                Z-matrix (autoz)
                                -------- 

 Units are Angstrom for bonds and degrees for angles
 
      Type          Name      I     J     K     L     M      Value
      ----------- --------  ----- ----- ----- ----- ----- ----------
    1 Stretch                  1     2                       1.00000
    2 Stretch                  1     3                       1.00000
    3 Bend                     2     1     3                90.00000
 
 
            XYZ format geometry
            -------------------
     3
 geometry
 O                     0.00000000     0.00000000     0.14142136
 H                     0.70710678     0.00000000    -0.56568542
 H                    -0.70710678     0.00000000    -0.56568542
 
 ==============================================================================
                                internuclear distances
 ------------------------------------------------------------------------------
       center one      |      center two      | atomic units |  angstroms
 ------------------------------------------------------------------------------
    2 H                |   1 O                |     1.88973  |     1.00000
    3 H                |   1 O                |     1.88973  |     1.00000
 ------------------------------------------------------------------------------
                         number of included internuclear distances:          2
 ==============================================================================



 ==============================================================================
                                 internuclear angles
 ------------------------------------------------------------------------------
        center 1       |       center 2       |       center 3       |  degrees
 ------------------------------------------------------------------------------
    2 H                |   1 O                |   3 H                |    90.00
 ------------------------------------------------------------------------------
                            number of included internuclear angles:          1
 ==============================================================================



  library name resolved from: environment
  library file name is: <
 /opt/apps/intel13/mvapich2_1_9/nwchem/6.3/data/libraries/>
  
                      Basis "ao basis" -> "" (cartesian)
                      -----
  H (Hydrogen)
  ------------
            Exponent  Coefficients 
       -------------- ---------------------------------------------------------
  1 S  3.42525091E+00  0.154329
  1 S  6.23913730E-01  0.535328
  1 S  1.68855400E-01  0.444635
 
  O (Oxygen)
  ----------
            Exponent  Coefficients 
       -------------- ---------------------------------------------------------
  1 S  1.30709320E+02  0.154329
  1 S  2.38088610E+01  0.535328
  1 S  6.44360830E+00  0.444635
 
  2 S  5.03315130E+00 -0.099967
  2 S  1.16959610E+00  0.399513
  2 S  3.80389000E-01  0.700115
 
  3 P  5.03315130E+00  0.155916
  3 P  1.16959610E+00  0.607684
  3 P  3.80389000E-01  0.391957
 


 Summary of "ao basis" -> "" (cartesian)
 ------------------------------------------------------------------------------
       Tag                 Description            Shells   Functions and Types
 ---------------- ------------------------------  ------  ---------------------
 H                           sto-3g                  1        1   1s
 O                           sto-3g                  3        5   2s1p


                      H2O+ : STO-3G UHF geometry optimization
                      ---------------------------------------
 
 
                           NWChem Geometry Optimization
                           ----------------------------
 
 
 
 
                      H2O+ : STO-3G UHF geometry optimization
 
 
 maximum gradient threshold         (gmax) =   0.000450
 rms gradient threshold             (grms) =   0.000300
 maximum cartesian step threshold   (xmax) =   0.001800
 rms cartesian step threshold       (xrms) =   0.001200
 fixed trust radius                (trust) =   0.300000
 maximum step size to saddle      (sadstp) =   0.100000
 energy precision                  (eprec) =   1.0D-07
 maximum number of steps          (nptopt) =   20
 initial hessian option           (inhess) =    0
 line search option               (linopt) =    1
 hessian update option            (modupd) =    1
 saddle point option              (modsad) =    0
 initial eigen-mode to follow     (moddir) =    0
 initial variable to follow       (vardir) =    0
 follow first negative mode     (firstneg) =    T
 apply conjugacy                    (opcg) =    F
 source of zmatrix                         =   autoz   


          -------------------
          Energy Minimization
          -------------------

 
 Names of Z-matrix variables 
    1              2              3         
 
 Variables with the same non-blank name are constrained to be equal
 
 
 Using diagonal initial Hessian 
 Scaling for Hessian diagonals: bonds = 1.00  angles = 0.25  torsions = 0.10

          --------
          Step   0
          --------
 
 
                         Geometry "geometry" -> "geometry"
                         ---------------------------------
 
 Output coordinates in angstroms (scale by  1.889725989 to convert to a.u.)
 
  No.       Tag          Charge          X              Y              Z
 ---- ---------------- ---------- -------------- -------------- --------------
    1 O                    8.0000     0.00000000     0.00000000     0.14142136
    2 H                    1.0000     0.70710678     0.00000000    -0.56568542
    3 H                    1.0000    -0.70710678     0.00000000    -0.56568542
 
      Atomic Mass 
      ----------- 
 
      O                 15.994910
      H                  1.007825
 

 Effective nuclear repulsion energy (a.u.)       8.8410208052

            Nuclear Dipole moment (a.u.) 
            ----------------------------
        X                 Y               Z
 ---------------- ---------------- ----------------
     0.0000000000     0.0000000000     0.0000000000
 
      Symmetry information
      --------------------
 
 Group name             C2v       
 Group number             16
 Group order               4
 No. of unique centers     2
 
      Symmetry unique atoms
 
     1    2
 
                                 NWChem SCF Module
                                 -----------------
 
 
                      H2O+ : STO-3G UHF geometry optimization
 
 

  ao basis        = "ao basis"
  functions       =     7
  atoms           =     3
  alpha electrons =     5
  beta  electrons =     4
  charge          =   1.00
  wavefunction    = UHF 
  input vectors   = atomic
  output vectors  = ./h2o_freq.movecs
  use symmetry    = T
  symmetry adapt  = T
 

 Forming initial guess at       0.1s


 Starting SCF solution at       0.2s



       Final UHF  results 
       ------------------ 

         Total SCF energy =    -74.653754522059
      One electron energy =   -115.830489513686
      Two electron energy =     32.335714186415
 Nuclear repulsion energy =      8.841020805213

                       Sz =      0.5000
                 Sz(Sz+1) =      0.7500
                      S^2 =      0.7566

        Time for solution =      0.0s


                              NWChem Gradients Module
                              -----------------------
 


                         UHF ENERGY GRADIENTS

    atom               coordinates                        gradient
                 x          y          z           x          y          z
   1 O       0.000000   0.000000   0.267248    0.000000   0.000000  -0.005967
   2 H       1.336238   0.000000  -1.068990   -0.064647   0.000000   0.002984
   3 H      -1.336238   0.000000  -1.068990    0.064647   0.000000   0.002984
 

@ Step       Energy      Delta E   Gmax     Grms     Xrms     Xmax   Walltime
@ ---- ---------------- -------- -------- -------- -------- -------- --------
@    0     -74.65375452  0.0D+00  0.04782  0.04646  0.00000  0.00000      0.2
                                                                    



                                Z-matrix (autoz)
                                -------- 

 Units are Angstrom for bonds and degrees for angles
 
      Type          Name      I     J     K     L     M      Value     Gradient
      ----------- --------  ----- ----- ----- ----- ----- ---------- ----------
    1 Stretch                  1     2                       1.00000   -0.04782
    2 Stretch                  1     3                       1.00000   -0.04782
    3 Bend                     2     1     3                90.00000   -0.04360
 
 Restricting large step in mode    1 eval= 4.8D-02 step= 9.1D-01 new= 3.0D-01
                                 NWChem SCF Module
                                 -----------------
 
 
                      H2O+ : STO-3G UHF geometry optimization
 
 

  ao basis        = "ao basis"
  functions       =     7
  atoms           =     3
  alpha electrons =     5
  beta  electrons =     4
  charge          =   1.00
  wavefunction    = UHF 
  input vectors   = ./h2o_freq.movecs
  output vectors  = ./h2o_freq.movecs
  use symmetry    = T
  symmetry adapt  = T
 

 Forming initial guess at       0.3s


 Starting SCF solution at       0.3s



       Final UHF  results 
       ------------------ 

         Total SCF energy =    -74.663793754568
      One electron energy =   -114.956748566879
      Two electron energy =     32.100686746335
 Nuclear repulsion energy =      8.192268065976

                       Sz =      0.5000
                 Sz(Sz+1) =      0.7500
                      S^2 =      0.7603

        Time for solution =      0.0s


 Line search: 
     step= 1.00 grad=-2.7D-02 hess= 1.7D-02 energy=    -74.663794 mode=downhill
 new step= 0.80                   predicted energy=    -74.664469

          --------
          Step   1
          --------
 
 
                         Geometry "geometry" -> "geometry"
                         ---------------------------------
 
 Output coordinates in angstroms (scale by  1.889725989 to convert to a.u.)
 
  No.       Tag          Charge          X              Y              Z
 ---- ---------------- ---------- -------------- -------------- --------------
    1 O                    8.0000     0.00000000     0.00000000     0.13733291
    2 H                    1.0000     0.79608488     0.00000000    -0.56364120
    3 H                    1.0000    -0.79608488     0.00000000    -0.56364120
 
      Atomic Mass 
      ----------- 
 
      O                 15.994910
      H                  1.007825
 

 Effective nuclear repulsion energy (a.u.)       8.3145608756

            Nuclear Dipole moment (a.u.) 
            ----------------------------
        X                 Y               Z
 ---------------- ---------------- ----------------
     0.0000000000     0.0000000000    -0.0540822587
 
      Symmetry information
      --------------------
 
 Group name             C2v       
 Group number             16
 Group order               4
 No. of unique centers     2
 
      Symmetry unique atoms
 
     1    2
 
                                 NWChem SCF Module
                                 -----------------
 
 
                      H2O+ : STO-3G UHF geometry optimization
 
 

  ao basis        = "ao basis"
  functions       =     7
  atoms           =     3
  alpha electrons =     5
  beta  electrons =     4
  charge          =   1.00
  wavefunction    = UHF 
  input vectors   = ./h2o_freq.movecs
  output vectors  = ./h2o_freq.movecs
  use symmetry    = T
  symmetry adapt  = T
 

 Forming initial guess at       0.4s


 Starting SCF solution at       0.4s



       Final UHF  results 
       ------------------ 

         Total SCF energy =    -74.664179087819
      One electron energy =   -115.121889128452
      Two electron energy =     32.143149164984
 Nuclear repulsion energy =      8.314560875649

                       Sz =      0.5000
                 Sz(Sz+1) =      0.7500
                      S^2 =      0.7594

        Time for solution =      0.0s


                              NWChem Gradients Module
                              -----------------------
 


                         UHF ENERGY GRADIENTS

    atom               coordinates                        gradient
                 x          y          z           x          y          z
   1 O       0.000000   0.000000   0.259522    0.000000   0.000000   0.058598
   2 H       1.504382   0.000000  -1.065127    0.001626   0.000000  -0.029299
   3 H      -1.504382   0.000000  -1.065127   -0.001626   0.000000  -0.029299
 

  Step       Energy      Delta E   Gmax     Grms     Xrms     Xmax   Walltime
  ---- ---------------- -------- -------- -------- -------- -------- --------
@    1     -74.66417909 -1.0D-02  0.02218  0.02113  0.08087  0.17101      0.4
                                                                    



                                Z-matrix (autoz)
                                -------- 

 Units are Angstrom for bonds and degrees for angles
 
      Type          Name      I     J     K     L     M      Value     Gradient
      ----------- --------  ----- ----- ----- ----- ----- ---------- ----------
    1 Stretch                  1     2                       1.06071    0.02058
    2 Stretch                  1     3                       1.06071    0.02058
    3 Bend                     2     1     3                97.27043   -0.02218
 
 Restricting large step in mode    1 eval= 5.4D-02 step= 4.6D-01 new= 3.0D-01
                                 NWChem SCF Module
                                 -----------------
 
 
                      H2O+ : STO-3G UHF geometry optimization
 
 

  ao basis        = "ao basis"
  functions       =     7
  atoms           =     3
  alpha electrons =     5
  beta  electrons =     4
  charge          =   1.00
  wavefunction    = UHF 
  input vectors   = ./h2o_freq.movecs
  output vectors  = ./h2o_freq.movecs
  use symmetry    = T
  symmetry adapt  = T
 

 Forming initial guess at       0.5s


 Starting SCF solution at       0.5s



       Final UHF  results 
       ------------------ 

         Total SCF energy =    -74.669354251012
      One electron energy =   -115.496003063464
      Two electron energy =     32.295305632714
 Nuclear repulsion energy =      8.531343179738

                       Sz =      0.5000
                 Sz(Sz+1) =      0.7500
                      S^2 =      0.7576

        Time for solution =      0.0s


 Line search: 
     step= 1.00 grad=-8.8D-03 hess= 3.6D-03 energy=    -74.669354 mode=downhill
 new step= 1.21                   predicted energy=    -74.669517

          --------
          Step   2
          --------
 
 
                         Geometry "geometry" -> "geometry"
                         ---------------------------------
 
 Output coordinates in angstroms (scale by  1.889725989 to convert to a.u.)
 
  No.       Tag          Charge          X              Y              Z
 ---- ---------------- ---------- -------------- -------------- --------------
    1 O                    8.0000     0.00000000     0.00000000     0.07136320
    2 H                    1.0000     0.82956435     0.00000000    -0.53065635
    3 H                    1.0000    -0.82956435     0.00000000    -0.53065635
 
      Atomic Mass 
      ----------- 
 
      O                 15.994910
      H                  1.007825
 

 Effective nuclear repulsion energy (a.u.)       8.5793570806

            Nuclear Dipole moment (a.u.) 
            ----------------------------
        X                 Y               Z
 ---------------- ---------------- ----------------
     0.0000000000     0.0000000000    -0.9267350389
 
      Symmetry information
      --------------------
 
 Group name             C2v       
 Group number             16
 Group order               4
 No. of unique centers     2
 
      Symmetry unique atoms
 
     1    2
 
                                 NWChem SCF Module
                                 -----------------
 
 
                      H2O+ : STO-3G UHF geometry optimization
 
 

  ao basis        = "ao basis"
  functions       =     7
  atoms           =     3
  alpha electrons =     5
  beta  electrons =     4
  charge          =   1.00
  wavefunction    = UHF 
  input vectors   = ./h2o_freq.movecs
  output vectors  = ./h2o_freq.movecs
  use symmetry    = T
  symmetry adapt  = T
 

 Forming initial guess at       0.6s


 Starting SCF solution at       0.6s



       Final UHF  results 
       ------------------ 

         Total SCF energy =    -74.669517282015
      One electron energy =   -115.578408373511
      Two electron energy =     32.329534010897
 Nuclear repulsion energy =      8.579357080599

                       Sz =      0.5000
                 Sz(Sz+1) =      0.7500
                      S^2 =      0.7573

        Time for solution =      0.0s


                              NWChem Gradients Module
                              -----------------------
 


                         UHF ENERGY GRADIENTS

    atom               coordinates                        gradient
                 x          y          z           x          y          z
   1 O       0.000000   0.000000   0.134857    0.000000   0.000000  -0.005008
   2 H       1.567649   0.000000  -1.002795   -0.008993   0.000000   0.002504
   3 H      -1.567649   0.000000  -1.002795    0.008993   0.000000   0.002504
 

  Step       Energy      Delta E   Gmax     Grms     Xrms     Xmax   Walltime
  ---- ---------------- -------- -------- -------- -------- -------- --------
@    2     -74.66951728 -5.3D-03  0.00875  0.00740  0.05746  0.12486      0.6
                                                                    



                                Z-matrix (autoz)
                                -------- 

 Units are Angstrom for bonds and degrees for angles
 
      Type          Name      I     J     K     L     M      Value     Gradient
      ----------- --------  ----- ----- ----- ----- ----- ---------- ----------
    1 Stretch                  1     2                       1.02499   -0.00875
    2 Stretch                  1     3                       1.02499   -0.00875
    3 Bend                     2     1     3               108.06279   -0.00334
 
                                 NWChem SCF Module
                                 -----------------
 
 
                      H2O+ : STO-3G UHF geometry optimization
 
 

  ao basis        = "ao basis"
  functions       =     7
  atoms           =     3
  alpha electrons =     5
  beta  electrons =     4
  charge          =   1.00
  wavefunction    = UHF 
  input vectors   = ./h2o_freq.movecs
  output vectors  = ./h2o_freq.movecs
  use symmetry    = T
  symmetry adapt  = T
 

 Forming initial guess at       0.7s


 Starting SCF solution at       0.7s



       Final UHF  results 
       ------------------ 

         Total SCF energy =    -74.669736247408
      One electron energy =   -115.497801451244
      Two electron energy =     32.311680806853
 Nuclear repulsion energy =      8.516384396982

                       Sz =      0.5000
                 Sz(Sz+1) =      0.7500
                      S^2 =      0.7576

        Time for solution =      0.0s


 Line search: 
     step= 1.00 grad=-3.8D-04 hess= 1.7D-04 energy=    -74.669736 mode=downhill
 new step= 1.16                   predicted energy=    -74.669741

          --------
          Step   3
          --------
 
 
                         Geometry "geometry" -> "geometry"
                         ---------------------------------
 
 Output coordinates in angstroms (scale by  1.889725989 to convert to a.u.)
 
  No.       Tag          Charge          X              Y              Z
 ---- ---------------- ---------- -------------- -------------- --------------
    1 O                    8.0000     0.00000000     0.00000000     0.06724424
    2 H                    1.0000     0.84438036     0.00000000    -0.52859686
    3 H                    1.0000    -0.84438036     0.00000000    -0.52859686
 
      Atomic Mass 
      ----------- 
 
      O                 15.994910
      H                  1.007825
 

 Effective nuclear repulsion energy (a.u.)       8.5061937474

            Nuclear Dipole moment (a.u.) 
            ----------------------------
        X                 Y               Z
 ---------------- ---------------- ----------------
     0.0000000000     0.0000000000    -0.9812210298
 
      Symmetry information
      --------------------
 
 Group name             C2v       
 Group number             16
 Group order               4
 No. of unique centers     2
 
      Symmetry unique atoms
 
     1    2
 
                                 NWChem SCF Module
                                 -----------------
 
 
                      H2O+ : STO-3G UHF geometry optimization
 
 

  ao basis        = "ao basis"
  functions       =     7
  atoms           =     3
  alpha electrons =     5
  beta  electrons =     4
  charge          =   1.00
  wavefunction    = UHF 
  input vectors   = ./h2o_freq.movecs
  output vectors  = ./h2o_freq.movecs
  use symmetry    = T
  symmetry adapt  = T
 

 Forming initial guess at       0.8s


 Starting SCF solution at       0.8s



       Final UHF  results 
       ------------------ 

         Total SCF energy =    -74.669741178475
      One electron energy =   -115.484730169287
      Two electron energy =     32.308795243404
 Nuclear repulsion energy =      8.506193747408

                       Sz =      0.5000
                 Sz(Sz+1) =      0.7500
                      S^2 =      0.7576

        Time for solution =      0.0s


                              NWChem Gradients Module
                              -----------------------
 


                         UHF ENERGY GRADIENTS

    atom               coordinates                        gradient
                 x          y          z           x          y          z
   1 O       0.000000   0.000000   0.127073    0.000000   0.000000   0.001140
   2 H       1.595648   0.000000  -0.998903    0.000157   0.000000  -0.000570
   3 H      -1.595648   0.000000  -0.998903   -0.000157   0.000000  -0.000570
 

  Step       Energy      Delta E   Gmax     Grms     Xrms     Xmax   Walltime
  ---- ---------------- -------- -------- -------- -------- -------- --------
@    3     -74.66974118 -2.2D-04  0.00046  0.00043  0.01358  0.02799      0.9
                                                                    



                                Z-matrix (autoz)
                                -------- 

 Units are Angstrom for bonds and degrees for angles
 
      Type          Name      I     J     K     L     M      Value     Gradient
      ----------- --------  ----- ----- ----- ----- ----- ---------- ----------
    1 Stretch                  1     2                       1.03344    0.00046
    2 Stretch                  1     3                       1.03344    0.00046
    3 Bend                     2     1     3               109.58222   -0.00039
 
                                 NWChem SCF Module
                                 -----------------
 
 
                      H2O+ : STO-3G UHF geometry optimization
 
 

  ao basis        = "ao basis"
  functions       =     7
  atoms           =     3
  alpha electrons =     5
  beta  electrons =     4
  charge          =   1.00
  wavefunction    = UHF 
  input vectors   = ./h2o_freq.movecs
  output vectors  = ./h2o_freq.movecs
  use symmetry    = T
  symmetry adapt  = T
 

 Forming initial guess at       0.9s


 Starting SCF solution at       0.9s



       Final UHF  results 
       ------------------ 

         Total SCF energy =    -74.669743218879
      One electron energy =   -115.491880498087
      Two electron energy =     32.312166870532
 Nuclear repulsion energy =      8.509970408676

                       Sz =      0.5000
                 Sz(Sz+1) =      0.7500
                      S^2 =      0.7576

        Time for solution =      0.0s


 Line search: 
     step= 1.00 grad=-3.9D-06 hess= 1.8D-06 energy=    -74.669743 mode=accept  
 new step= 1.00                   predicted energy=    -74.669743

          --------
          Step   4
          --------
 
 
                         Geometry "geometry" -> "geometry"
                         ---------------------------------
 
 Output coordinates in angstroms (scale by  1.889725989 to convert to a.u.)
 
  No.       Tag          Charge          X              Y              Z
 ---- ---------------- ---------- -------------- -------------- --------------
    1 O                    8.0000     0.00000000     0.00000000     0.06590064
    2 H                    1.0000     0.84517186     0.00000000    -0.52792507
    3 H                    1.0000    -0.84517186     0.00000000    -0.52792507
 
      Atomic Mass 
      ----------- 
 
      O                 15.994910
      H                  1.007825
 

 Effective nuclear repulsion energy (a.u.)       8.5099704087

            Nuclear Dipole moment (a.u.) 
            ----------------------------
        X                 Y               Z
 ---------------- ---------------- ----------------
     0.0000000000     0.0000000000    -0.9989942073
 
      Symmetry information
      --------------------
 
 Group name             C2v       
 Group number             16
 Group order               4
 No. of unique centers     2
 
      Symmetry unique atoms
 
     1    2
 
                                 NWChem SCF Module
                                 -----------------
 
 
                      H2O+ : STO-3G UHF geometry optimization
 
 

  ao basis        = "ao basis"
  functions       =     7
  atoms           =     3
  alpha electrons =     5
  beta  electrons =     4
  charge          =   1.00
  wavefunction    = UHF 
  input vectors   = ./h2o_freq.movecs
  output vectors  = ./h2o_freq.movecs
  use symmetry    = T
  symmetry adapt  = T
 

  The SCF is already converged 

         Total SCF energy =    -74.669743218879

                              NWChem Gradients Module
                              -----------------------
 


                         UHF ENERGY GRADIENTS

    atom               coordinates                        gradient
                 x          y          z           x          y          z
   1 O       0.000000   0.000000   0.124534    0.000000   0.000000   0.000066
   2 H       1.597143   0.000000  -0.997634    0.000012   0.000000  -0.000033
   3 H      -1.597143   0.000000  -0.997634   -0.000012   0.000000  -0.000033
 

  Step       Energy      Delta E   Gmax     Grms     Xrms     Xmax   Walltime
  ---- ---------------- -------- -------- -------- -------- -------- --------
@    4     -74.66974322 -2.0D-06  0.00003  0.00003  0.00125  0.00254      1.0
                                     ok       ok                    



                                Z-matrix (autoz)
                                -------- 

 Units are Angstrom for bonds and degrees for angles
 
      Type          Name      I     J     K     L     M      Value     Gradient
      ----------- --------  ----- ----- ----- ----- ----- ---------- ----------
    1 Stretch                  1     2                       1.03293    0.00003
    2 Stretch                  1     3                       1.03293    0.00003
    3 Bend                     2     1     3               109.81552   -0.00002
 
                                 NWChem SCF Module
                                 -----------------
 
 
                      H2O+ : STO-3G UHF geometry optimization
 
 

  ao basis        = "ao basis"
  functions       =     7
  atoms           =     3
  alpha electrons =     5
  beta  electrons =     4
  charge          =   1.00
  wavefunction    = UHF 
  input vectors   = ./h2o_freq.movecs
  output vectors  = ./h2o_freq.movecs
  use symmetry    = T
  symmetry adapt  = T
 

 Forming initial guess at       1.1s


 Starting SCF solution at       1.1s



       Final UHF  results 
       ------------------ 

         Total SCF energy =    -74.669743223079
      One electron energy =   -115.492219984684
      Two electron energy =     32.312257323906
 Nuclear repulsion energy =      8.510219437699

                       Sz =      0.5000
                 Sz(Sz+1) =      0.7500
                      S^2 =      0.7576

        Time for solution =      0.0s


 Line search: 
     step= 1.00 grad=-1.3D-08 hess= 8.4D-09 energy=    -74.669743 mode=accept  
 new step= 1.00                   predicted energy=    -74.669743

          --------
          Step   5
          --------
 
 
                         Geometry "geometry" -> "geometry"
                         ---------------------------------
 
 Output coordinates in angstroms (scale by  1.889725989 to convert to a.u.)
 
  No.       Tag          Charge          X              Y              Z
 ---- ---------------- ---------- -------------- -------------- --------------
    1 O                    8.0000     0.00000000     0.00000000     0.06582269
    2 H                    1.0000     0.84521329     0.00000000    -0.52788609
    3 H                    1.0000    -0.84521329     0.00000000    -0.52788609
 
      Atomic Mass 
      ----------- 
 
      O                 15.994910
      H                  1.007825
 

 Effective nuclear repulsion energy (a.u.)       8.5102194377

            Nuclear Dipole moment (a.u.) 
            ----------------------------
        X                 Y               Z
 ---------------- ---------------- ----------------
     0.0000000000     0.0000000000    -1.0000253938
 
      Symmetry information
      --------------------
 
 Group name             C2v       
 Group number             16
 Group order               4
 No. of unique centers     2
 
      Symmetry unique atoms
 
     1    2
 
                                 NWChem SCF Module
                                 -----------------
 
 
                      H2O+ : STO-3G UHF geometry optimization
 
 

  ao basis        = "ao basis"
  functions       =     7
  atoms           =     3
  alpha electrons =     5
  beta  electrons =     4
  charge          =   1.00
  wavefunction    = UHF 
  input vectors   = ./h2o_freq.movecs
  output vectors  = ./h2o_freq.movecs
  use symmetry    = T
  symmetry adapt  = T
 

  The SCF is already converged 

         Total SCF energy =    -74.669743223079

                              NWChem Gradients Module
                              -----------------------
 


                         UHF ENERGY GRADIENTS

    atom               coordinates                        gradient
                 x          y          z           x          y          z
   1 O       0.000000   0.000000   0.124387    0.000000   0.000000  -0.000020
   2 H       1.597222   0.000000  -0.997560   -0.000001   0.000000   0.000010
   3 H      -1.597222   0.000000  -0.997560    0.000001   0.000000   0.000010
 

  Step       Energy      Delta E   Gmax     Grms     Xrms     Xmax   Walltime
  ---- ---------------- -------- -------- -------- -------- -------- --------
@    5     -74.66974322 -4.2D-09  0.00001  0.00001  0.00007  0.00015      1.2
                                     ok       ok       ok       ok  



                                Z-matrix (autoz)
                                -------- 

 Units are Angstrom for bonds and degrees for angles
 
      Type          Name      I     J     K     L     M      Value     Gradient
      ----------- --------  ----- ----- ----- ----- ----- ---------- ----------
    1 Stretch                  1     2                       1.03290   -0.00001
    2 Stretch                  1     3                       1.03290   -0.00001
    3 Bend                     2     1     3               109.82878    0.00001
 

      ----------------------
      Optimization converged
      ----------------------


  Step       Energy      Delta E   Gmax     Grms     Xrms     Xmax   Walltime
  ---- ---------------- -------- -------- -------- -------- -------- --------
@    5     -74.66974322 -4.2D-09  0.00001  0.00001  0.00007  0.00015      1.2
                                     ok       ok       ok       ok  



                                Z-matrix (autoz)
                                -------- 

 Units are Angstrom for bonds and degrees for angles
 
      Type          Name      I     J     K     L     M      Value     Gradient
      ----------- --------  ----- ----- ----- ----- ----- ---------- ----------
    1 Stretch                  1     2                       1.03290   -0.00001
    2 Stretch                  1     3                       1.03290   -0.00001
    3 Bend                     2     1     3               109.82878    0.00001
 
 
 
                         Geometry "geometry" -> "geometry"
                         ---------------------------------
 
 Output coordinates in angstroms (scale by  1.889725989 to convert to a.u.)
 
  No.       Tag          Charge          X              Y              Z
 ---- ---------------- ---------- -------------- -------------- --------------
    1 O                    8.0000     0.00000000     0.00000000     0.06582269
    2 H                    1.0000     0.84521329     0.00000000    -0.52788609
    3 H                    1.0000    -0.84521329     0.00000000    -0.52788609
 
      Atomic Mass 
      ----------- 
 
      O                 15.994910
      H                  1.007825
 

 Effective nuclear repulsion energy (a.u.)       8.5102194377

            Nuclear Dipole moment (a.u.) 
            ----------------------------
        X                 Y               Z
 ---------------- ---------------- ----------------
     0.0000000000     0.0000000000    -1.0000253938
 
      Symmetry information
      --------------------
 
 Group name             C2v       
 Group number             16
 Group order               4
 No. of unique centers     2
 
      Symmetry unique atoms
 
     1    2
 
 
                Final and change from initial internal coordinates
                --------------------------------------------------
 


                                Z-matrix (autoz)
                                -------- 

 Units are Angstrom for bonds and degrees for angles
 
      Type          Name      I     J     K     L     M      Value       Change
      ----------- --------  ----- ----- ----- ----- ----- ---------- ----------
    1 Stretch                  1     2                       1.03290    0.03290
    2 Stretch                  1     3                       1.03290    0.03290
    3 Bend                     2     1     3               109.82878   19.82878
 
 ==============================================================================
                                internuclear distances
 ------------------------------------------------------------------------------
       center one      |      center two      | atomic units |  angstroms
 ------------------------------------------------------------------------------
    2 H                |   1 O                |     1.95189  |     1.03290
    3 H                |   1 O                |     1.95189  |     1.03290
 ------------------------------------------------------------------------------
                         number of included internuclear distances:          2
 ==============================================================================



 ==============================================================================
                                 internuclear angles
 ------------------------------------------------------------------------------
        center 1       |       center 2       |       center 3       |  degrees
 ------------------------------------------------------------------------------
    2 H                |   1 O                |   3 H                |   109.83
 ------------------------------------------------------------------------------
                            number of included internuclear angles:          1
 ==============================================================================




 Task  times  cpu:        0.2s     wall:        1.1s
 
 
                                NWChem Input Module
                                -------------------
 
 
  library name resolved from: environment
  library file name is: <
 /opt/apps/intel13/mvapich2_1_9/nwchem/6.3/data/libraries/>
  
                      Basis "ao basis" -> "" (cartesian)
                      -----
  H (Hydrogen)
  ------------
            Exponent  Coefficients 
       -------------- ---------------------------------------------------------
  1 S  1.87311370E+01  0.033495
  1 S  2.82539370E+00  0.234727
  1 S  6.40121700E-01  0.813757
 
  2 S  1.61277800E-01  1.000000
 
  3 P  1.10000000E+00  1.000000
 
  O (Oxygen)
  ----------
            Exponent  Coefficients 
       -------------- ---------------------------------------------------------
  1 S  5.48467170E+03  0.001831
  1 S  8.25234950E+02  0.013950
  1 S  1.88046960E+02  0.068445
  1 S  5.29645000E+01  0.232714
  1 S  1.68975700E+01  0.470193
  1 S  5.79963530E+00  0.358521
 
  2 S  1.55396160E+01 -0.110778
  2 S  3.59993360E+00 -0.148026
  2 S  1.01376180E+00  1.130767
 
  3 P  1.55396160E+01  0.070874
  3 P  3.59993360E+00  0.339753
  3 P  1.01376180E+00  0.727159
 
  4 S  2.70005800E-01  1.000000
 
  5 P  2.70005800E-01  1.000000
 
  6 D  8.00000000E-01  1.000000
 


 Summary of "ao basis" -> "" (cartesian)
 ------------------------------------------------------------------------------
       Tag                 Description            Shells   Functions and Types
 ---------------- ------------------------------  ------  ---------------------
 H                          6-31g**                  3        5   2s1p
 O                          6-31g**                  6       15   3s2p1d


                     H2O+ : 6-31g** UMP2 geometry optimization
                     -----------------------------------------
 
 
                           NWChem Geometry Optimization
                           ----------------------------
 
 
 
 
                     H2O+ : 6-31g** UMP2 geometry optimization
 
 
 maximum gradient threshold         (gmax) =   0.000450
 rms gradient threshold             (grms) =   0.000300
 maximum cartesian step threshold   (xmax) =   0.001800
 rms cartesian step threshold       (xrms) =   0.001200
 fixed trust radius                (trust) =   0.300000
 maximum step size to saddle      (sadstp) =   0.100000
 energy precision                  (eprec) =   1.0D-07
 maximum number of steps          (nptopt) =   20
 initial hessian option           (inhess) =    0
 line search option               (linopt) =    1
 hessian update option            (modupd) =    1
 saddle point option              (modsad) =    0
 initial eigen-mode to follow     (moddir) =    0
 initial variable to follow       (vardir) =    0
 follow first negative mode     (firstneg) =    T
 apply conjugacy                    (opcg) =    F
 source of zmatrix                         =   autoz   


          -------------------
          Energy Minimization
          -------------------

 
 Names of Z-matrix variables 
    1              2              3         
 
 Variables with the same non-blank name are constrained to be equal
 
 
 Using old Hessian from previous optimization

          --------
          Step   0
          --------
 
 
                         Geometry "geometry" -> "geometry"
                         ---------------------------------
 
 Output coordinates in angstroms (scale by  1.889725989 to convert to a.u.)
 
  No.       Tag          Charge          X              Y              Z
 ---- ---------------- ---------- -------------- -------------- --------------
    1 O                    8.0000     0.00000000     0.00000000     0.06582269
    2 H                    1.0000     0.84521329     0.00000000    -0.52788609
    3 H                    1.0000    -0.84521329     0.00000000    -0.52788609
 
      Atomic Mass 
      ----------- 
 
      O                 15.994910
      H                  1.007825
 

 Effective nuclear repulsion energy (a.u.)       8.5102194377

            Nuclear Dipole moment (a.u.) 
            ----------------------------
        X                 Y               Z
 ---------------- ---------------- ----------------
     0.0000000000     0.0000000000    -1.0000253938
 
      Symmetry information
      --------------------
 
 Group name             C2v       
 Group number             16
 Group order               4
 No. of unique centers     2
 
      Symmetry unique atoms
 
     1    2
 
                                 NWChem SCF Module
                                 -----------------
 
 
                     H2O+ : 6-31g** UMP2 geometry optimization
 
 

  ao basis        = "ao basis"
  functions       =    25
  atoms           =     3
  alpha electrons =     5
  beta  electrons =     4
  charge          =   1.00
  wavefunction    = UHF 
  input vectors   = ./h2o_freq.movecs
  output vectors  = ./h2o_freq.movecs
  use symmetry    = T
  symmetry adapt  = T
 

 Forming initial guess at       1.3s


 !! nbf/nmo/basis-name mismatch 
           nbf=  25 nbf_file=   7
           nmo=  25nmo_file=   7
           basis="ao basis" basis_file="ao basis"

  Either an incorrect movecs file was 
 specified, or linear dependence has changed,
  or the basis name was changed. 
 
  Load of old vectors failed.   Forcing atomic density guess
 

 Starting SCF solution at       1.3s



       Final UHF  results 
       ------------------ 

         Total SCF energy =    -75.624186518890
      One electron energy =   -116.982758015258
      Two electron energy =     32.848352058669
 Nuclear repulsion energy =      8.510219437699

                       Sz =      0.5000
                 Sz(Sz+1) =      0.7500
                      S^2 =      0.7580

        Time for solution =      0.0s


                   NWChem MP2 Semi-direct Energy/Gradient Module
                   ---------------------------------------------
 
 
                     H2O+ : 6-31g** UMP2 geometry optimization
 
 
  Basis functions       =     25
  Molecular orbitals    =     25
  Frozen core           =      0
  Frozen virtuals       =      0
  Active alpha occupied =      5
  Active beta occupied  =      4
  Active alpha virtual  =     20
  Active beta virtual   =     21
  Use MO symmetry       = T
  Use skeleton AO sym   = T

  AO/Fock/Back tols     =   1.0D-09  1.0D-09  1.0D-09

 GA uses MA = F    GA memory limited = T

 Available: 
  local mem=  1.15D+07
 global mem=  2.62D+07
 local disk=  1.09D+07
   1 passes of   5:        1488443                       4627                     13313.
 
 Semi-direct pass number   1 of   1  for UHF alpha       at        1.4s
Node 0 wrote      0.1 Mb in      0.0 s     Agg I/O rate:     0.0 Mb/s
 Done moints_semi at        1.4s
 Done maket at        1.4s
 Done pijab at        1.4s
 Done wijab at        1.4s
 Done lai at        1.4s
 Done nonsep at        1.4s
 Done multipass loop at        1.5s

 GA uses MA = F    GA memory limited = T

 Available: 
  local mem=  1.15D+07
 global mem=  2.62D+07
 local disk=  1.09D+07
   1 passes of   4:        1487499                       4040                     12794.
 
 Semi-direct pass number   1 of   1  for UHF beta        at        1.5s
Node 0 wrote      0.1 Mb in      0.0 s     Agg I/O rate:    52.1 Mb/s
 Done moints_semi at        1.5s
 Done maket at        1.5s
 Done pijab at        1.5s
 Done wijab at        1.5s
 Done lai at        1.5s
 Done nonsep at        1.6s
 Done multipass loop at        1.6s


          -------------------------------------------
          SCF energy                 -75.624186518890
          Correlation energy          -0.150866565037
          Singlet pairs                0.000000000000
          Triplet pairs                0.000000000000
          Total MP2 energy           -75.775053083927
          -------------------------------------------

                                NWChem CPHF Module
                                ------------------
 
 
    scftype = UHF 
     nalpha =    5
      nbeta =    4
  variables =      184
  tolerance =   1.0D-04
  max. iter =  100


 #quartets = 1.953D+03 #integrals = 1.805D+04 #direct =  0.0% #cached =100.0%


 Integral file          = ./h2o_freq.aoints.0
 Record size in doubles =    65536    No. of integs per rec  =    43688
 Max. records in memory =        2    Max. records in file   = 47499998
 No. of bits per label  =        8    No. of bits per value  =       64


File balance: exchanges=     0  moved=     0  time=   0.0

 SCF residual:   5.222415137858096E-008

            ----- linear solve (tol: 1.0E-04 prod-acc: 3.1E-10) -----

               iter nbas    rnorm     rnorm-scal   ratio     time
               ---- ---- ----------- ----------- --------- -------
                  1    1  1.3188E-02  3.1208E-01    0.0000     0.7
                  2    2  4.4471E-03  1.0524E-01    0.3372     0.7
                  3    3  1.5641E-03  3.7012E-02    0.3517     0.7
                  4    4  4.0342E-04  9.5466E-03    0.2579     0.7
                  5    5  6.7306E-05  1.5927E-03    0.1668     0.7
                  6    6  1.6895E-05  3.9980E-04    0.2510     0.7
                  7    7  3.8087E-06  9.0128E-05    0.2254     0.7

 CPHF converged to   9.0D-05 in    7 iters


 Parallel integral file used       4 records with       0 large values

                Dipole Moments (a.u.)
                --------------
         Nuclear       SCF       SCF+MP2
       ----------- ----------- -----------
 X       0.000000    0.000000    0.000000
 Y       0.000000   -0.000000   -0.000000
 Z      -1.000025   -1.072418   -1.037604
 

 MP2 alpha    natural orbital occupation numbers


              1      
    1    1.0000
    2    0.9951
    3    0.9911
    4    0.9876
    5    0.9863
    6    0.0096
    7    0.0086
    8    0.0055
    9    0.0040
   10    0.0023
   11    0.0022
   12    0.0022
   13    0.0021
   14    0.0019
   15    0.0004
   16    0.0003
   17    0.0002
   18    0.0001
   19    0.0001
   20    0.0001
   21    0.0001
   22    0.0001
   23    0.0000
   24    0.0000
   25   -0.0000

 MP2 beta     natural orbital occupation numbers


              1      
    1    1.0000
    2    0.9921
    3    0.9873
    4    0.9863
    5    0.0101
    6    0.0087
    7    0.0043
    8    0.0029
    9    0.0022
   10    0.0021
   11    0.0010
   12    0.0010
   13    0.0007
   14    0.0003
   15    0.0003
   16    0.0002
   17    0.0002
   18    0.0001
   19    0.0001
   20    0.0001
   21    0.0001
   22    0.0001
   23    0.0000
   24    0.0000
   25    0.0000
 
  MP2 natural orbitals output to ./h2o_freq.mp2nos
 
  Using symmetry


                         mp2 ENERGY GRADIENTS

    atom               coordinates                        gradient
                 x          y          z           x          y          z
   1 O       0.000000   0.000000   0.124387    0.000000   0.000000   0.027652
   2 H       1.597222   0.000000  -0.997560    0.020487   0.000000  -0.013826
   3 H      -1.597222   0.000000  -0.997560   -0.020487   0.000000  -0.013826
 
                 ----------------------------------------
                 |  Time  |  1-e(secs)   |  2-e(secs)   |
                 ----------------------------------------
                 |  CPU   |       0.00   |       0.01   |
                 ----------------------------------------
                 |  WALL  |       0.00   |       0.01   |
                 ----------------------------------------
 -----------------------
 Performance information
 -----------------------

 Timer overhead =  0.00D+00 seconds/call

               Nr. of calls         CPU time (s)                 Wall time (s)                GFlops
             ---------------    -------------------     ------------------------------   -------------------
Name         Min   Avg   Max    Min     Avg     Max     Min     Avg     Max   Mx/calls   Min     Max     Sum
mp2: moin     2     2     2   4.10E-2 4.25E-2 4.40E-2  4.90E-2 4.90E-2 4.90E-2 2.45E-2   0.0     0.0     0.0   
mp2: make     2     2     2   2.00E-3 2.50E-3 3.00E-3  5.42E-3 5.88E-3 6.91E-3 3.46E-3   0.0     0.0     0.0   
mp2: pija     2     2     2    0.0    5.00E-4 1.00E-3  1.15E-3 1.15E-3 1.16E-3 5.78E-4   0.0     0.0     0.0   
mp2: wija     2     2     2    0.0    5.00E-4 1.00E-3  1.19E-3 1.20E-3 1.20E-3 6.01E-4   0.0     0.0     0.0   
mp2: lai      2     2     2    0.0    1.00E-3 2.00E-3  2.61E-3 2.61E-3 2.62E-3 1.31E-3   0.0     0.0     0.0   
mp2: back     2     2     2   1.00E-3 2.25E-3 4.00E-3  7.61E-3 7.61E-3 7.61E-3 3.81E-3   0.0     0.0     0.0   
mp2: nons     2     2     2   4.30E-2 5.60E-2 6.70E-2  4.29E-2 5.66E-2 6.68E-2 3.34E-2   0.0     0.0     0.0   
mp2: laif     1     1     1   1.20E-2 1.20E-2 1.20E-2  1.19E-2 1.19E-2 1.19E-2 1.19E-2   0.0     0.0     0.0   
mp2: cphf     1     1     1   2.40E-2 3.10E-2 3.40E-2  3.42E-2 3.42E-2 3.42E-2 3.42E-2   0.0     0.0     0.0   
mp2: wijf     1     1     1   1.10E-2 1.15E-2 1.20E-2  1.18E-2 1.18E-2 1.18E-2 1.18E-2   0.0     0.0     0.0   
mp2: sep      1     1     1   2.50E-2 2.77E-2 2.90E-2  2.92E-2 2.92E-2 2.92E-2 2.92E-2   0.0     0.0     0.0   
mp2: tota     1     1     1   0.25    0.28    0.29     0.34    0.34    0.34    0.34      0.0     0.0     0.0   

 The average no. of pstat calls per process was 1.90D+01
 with a timing overhead of 0.00D+00s


@ Step       Energy      Delta E   Gmax     Grms     Xrms     Xmax   Walltime
@ ---- ---------------- -------- -------- -------- -------- -------- --------
@    0     -75.77505308  0.0D+00  0.02471  0.02018  0.00000  0.00000      1.7
                                                                    



                                Z-matrix (autoz)
                                -------- 

 Units are Angstrom for bonds and degrees for angles
 
      Type          Name      I     J     K     L     M      Value     Gradient
      ----------- --------  ----- ----- ----- ----- ----- ---------- ----------
    1 Stretch                  1     2                       1.03290    0.02471
    2 Stretch                  1     3                       1.03290    0.02471
    3 Bend                     2     1     3               109.82878    0.00048
 
                                 NWChem SCF Module
                                 -----------------
 
 
                     H2O+ : 6-31g** UMP2 geometry optimization
 
 

  ao basis        = "ao basis"
  functions       =    25
  atoms           =     3
  alpha electrons =     5
  beta  electrons =     4
  charge          =   1.00
  wavefunction    = UHF 
  input vectors   = ./h2o_freq.movecs
  output vectors  = ./h2o_freq.movecs
  use symmetry    = T
  symmetry adapt  = T
 

 Forming initial guess at       1.8s


 Starting SCF solution at       1.8s



       Final UHF  results 
       ------------------ 

         Total SCF energy =    -75.626926205446
      One electron energy =   -117.296357030382
      Two electron energy =     32.959869861561
 Nuclear repulsion energy =      8.709560963376

                       Sz =      0.5000
                 Sz(Sz+1) =      0.7500
                      S^2 =      0.7573

        Time for solution =      0.0s


                   NWChem MP2 Semi-direct Energy/Gradient Module
                   ---------------------------------------------
 
 
                     H2O+ : 6-31g** UMP2 geometry optimization
 
 
  Basis functions       =     25
  Molecular orbitals    =     25
  Frozen core           =      0
  Frozen virtuals       =      0
  Active alpha occupied =      5
  Active beta occupied  =      4
  Active alpha virtual  =     20
  Active beta virtual   =     21
  Use MO symmetry       = T
  Use skeleton AO sym   = T

  AO/Fock/Back tols     =   1.0D-09  1.0D-09  1.0D-09

 GA uses MA = F    GA memory limited = T

 Available: 
  local mem=  1.15D+07
 global mem=  2.62D+07
 local disk=  1.09D+07
   1 passes of   5:         392343                       3990                      8621.
 
 Semi-direct pass number   1 of   1  for UHF alpha       at        1.8s
Node 0 wrote      0.1 Mb in      0.0 s     Agg I/O rate:     0.0 Mb/s
 Done moints_semi at        1.8s
 Done maket at        1.8s
 Done multipass loop at        1.8s

 GA uses MA = F    GA memory limited = T

 Available: 
  local mem=  1.15D+07
 global mem=  2.62D+07
 local disk=  1.09D+07
   1 passes of   4:         391425                       3402                      8290.
 
 Semi-direct pass number   1 of   1  for UHF beta        at        1.8s
Node 0 wrote      0.1 Mb in      0.0 s     Agg I/O rate:     0.0 Mb/s
 Done moints_semi at        1.9s
 Done maket at        1.9s
 Done multipass loop at        1.9s


          -------------------------------------------
          SCF energy                 -75.626926205446
          Correlation energy          -0.149596748579
          Singlet pairs                0.000000000000
          Triplet pairs                0.000000000000
          Total MP2 energy           -75.776522954025
          -------------------------------------------

 -----------------------
 Performance information
 -----------------------

 Timer overhead =  1.00D-07 seconds/call

               Nr. of calls         CPU time (s)                 Wall time (s)                GFlops
             ---------------    -------------------     ------------------------------   -------------------
Name         Min   Avg   Max    Min     Avg     Max     Min     Avg     Max   Mx/calls   Min     Max     Sum
mp2: moin     2     2     2   4.30E-2 4.35E-2 4.40E-2  4.82E-2 4.82E-2 4.82E-2 2.41E-2   0.0     0.0     0.0   
mp2: make     2     2     2   9.99E-4 1.50E-3 2.00E-3  2.09E-3 2.55E-3 3.03E-3 1.51E-3   0.0     0.0     0.0   
mp2: tota     1     1     1   7.30E-2 7.65E-2 7.90E-2  9.07E-2 9.07E-2 9.07E-2 9.07E-2   0.0     0.0     0.0   

 The average no. of pstat calls per process was 5.00D+00
 with a timing overhead of 5.00D-07s

 Line search: 
     step= 1.00 grad=-2.2D-03 hess= 7.4D-04 energy=    -75.776523 mode=downhill
 new step= 1.50                   predicted energy=    -75.776705

          --------
          Step   1
          --------
 
 
                         Geometry "geometry" -> "geometry"
                         ---------------------------------
 
 Output coordinates in angstroms (scale by  1.889725989 to convert to a.u.)
 
  No.       Tag          Charge          X              Y              Z
 ---- ---------------- ---------- -------------- -------------- --------------
    1 O                    8.0000     0.00000000     0.00000000     0.05387296
    2 H                    1.0000     0.81463216     0.00000000    -0.52191123
    3 H                    1.0000    -0.81463216     0.00000000    -0.52191123
 
      Atomic Mass 
      ----------- 
 
      O                 15.994910
      H                  1.007825
 

 Effective nuclear repulsion energy (a.u.)       8.8122255508

            Nuclear Dipole moment (a.u.) 
            ----------------------------
        X                 Y               Z
 ---------------- ---------------- ----------------
     0.0000000000     0.0000000000    -1.1580974027
 
      Symmetry information
      --------------------
 
 Group name             C2v       
 Group number             16
 Group order               4
 No. of unique centers     2
 
      Symmetry unique atoms
 
     1    2
 
                                 NWChem SCF Module
                                 -----------------
 
 
                     H2O+ : 6-31g** UMP2 geometry optimization
 
 

  ao basis        = "ao basis"
  functions       =    25
  atoms           =     3
  alpha electrons =     5
  beta  electrons =     4
  charge          =   1.00
  wavefunction    = UHF 
  input vectors   = ./h2o_freq.movecs
  output vectors  = ./h2o_freq.movecs
  use symmetry    = T
  symmetry adapt  = T
 

 Forming initial guess at       2.0s


 Starting SCF solution at       2.0s



       Final UHF  results 
       ------------------ 

         Total SCF energy =    -75.627694805651
      One electron energy =   -117.457390558449
      Two electron energy =     33.017470201985
 Nuclear repulsion energy =      8.812225550813

                       Sz =      0.5000
                 Sz(Sz+1) =      0.7500
                      S^2 =      0.7571

        Time for solution =      0.0s


                   NWChem MP2 Semi-direct Energy/Gradient Module
                   ---------------------------------------------
 
 
                     H2O+ : 6-31g** UMP2 geometry optimization
 
 
  Basis functions       =     25
  Molecular orbitals    =     25
  Frozen core           =      0
  Frozen virtuals       =      0
  Active alpha occupied =      5
  Active beta occupied  =      4
  Active alpha virtual  =     20
  Active beta virtual   =     21
  Use MO symmetry       = T
  Use skeleton AO sym   = T

  AO/Fock/Back tols     =   1.0D-09  1.0D-09  1.0D-09

 GA uses MA = F    GA memory limited = T

 Available: 
  local mem=  1.15D+07
 global mem=  2.62D+07
 local disk=  1.09D+07
   1 passes of   5:        1488443                       4627                     13313.
 
 Semi-direct pass number   1 of   1  for UHF alpha       at        2.0s
Node 0 wrote      0.1 Mb in      0.0 s     Agg I/O rate:     0.0 Mb/s
 Done moints_semi at        2.1s
 Done maket at        2.1s
 Done pijab at        2.1s
 Done wijab at        2.1s
 Done lai at        2.1s
 Done nonsep at        2.1s
 Done multipass loop at        2.1s

 GA uses MA = F    GA memory limited = T

 Available: 
  local mem=  1.15D+07
 global mem=  2.62D+07
 local disk=  1.09D+07
   1 passes of   4:        1487499                       4040                     12794.
 
 Semi-direct pass number   1 of   1  for UHF beta        at        2.1s
Node 0 wrote      0.1 Mb in      0.0 s     Agg I/O rate:     0.0 Mb/s
 Done moints_semi at        2.2s
 Done maket at        2.2s
 Done pijab at        2.2s
 Done wijab at        2.2s
 Done lai at        2.2s
 Done nonsep at        2.2s
 Done multipass loop at        2.2s


          -------------------------------------------
          SCF energy                 -75.627694805651
          Correlation energy          -0.148962671445
          Singlet pairs                0.000000000000
          Triplet pairs                0.000000000000
          Total MP2 energy           -75.776657477096
          -------------------------------------------

                                NWChem CPHF Module
                                ------------------
 
 
    scftype = UHF 
     nalpha =    5
      nbeta =    4
  variables =      184
  tolerance =   1.0D-04
  max. iter =  100


 #quartets = 1.953D+03 #integrals = 1.805D+04 #direct =  0.0% #cached =100.0%


 Integral file          = ./h2o_freq.aoints.0
 Record size in doubles =    65536    No. of integs per rec  =    43688
 Max. records in memory =        2    Max. records in file   = 47499998
 No. of bits per label  =        8    No. of bits per value  =       64


File balance: exchanges=     0  moved=     0  time=   0.0

 SCF residual:   8.776199838806181E-008

            ----- linear solve (tol: 1.0E-04 prod-acc: 3.0E-10) -----

               iter nbas    rnorm     rnorm-scal   ratio     time
               ---- ---- ----------- ----------- --------- -------
                  1    1  1.2459E-02  3.0405E-01    0.0000     1.1
                  2    2  3.9185E-03  9.5627E-02    0.3145     1.1
                  3    3  1.2883E-03  3.1439E-02    0.3288     1.1
                  4    4  3.1847E-04  7.7719E-03    0.2472     1.1
                  5    5  5.0498E-05  1.2324E-03    0.1586     1.1
                  6    6  1.1936E-05  2.9129E-04    0.2364     1.1
                  7    7  2.6224E-06  6.3997E-05    0.2197     1.1

 CPHF converged to   6.4D-05 in    7 iters


 Parallel integral file used       4 records with       0 large values

                Dipole Moments (a.u.)
                --------------
         Nuclear       SCF       SCF+MP2
       ----------- ----------- -----------
 X       0.000000    0.000000    0.000000
 Y       0.000000   -0.000000   -0.000000
 Z      -1.158097   -1.053671   -1.023655
 

 MP2 alpha    natural orbital occupation numbers


              1      
    1    1.0000
    2    0.9952
    3    0.9913
    4    0.9881
    5    0.9870
    6    0.0090
    7    0.0080
    8    0.0053
    9    0.0039
   10    0.0023
   11    0.0021
   12    0.0021
   13    0.0021
   14    0.0019
   15    0.0003
   16    0.0003
   17    0.0002
   18    0.0002
   19    0.0001
   20    0.0001
   21    0.0001
   22    0.0001
   23    0.0000
   24    0.0000
   25    0.0000

 MP2 beta     natural orbital occupation numbers


              1      
    1    1.0000
    2    0.9922
    3    0.9878
    4    0.9869
    5    0.0094
    6    0.0081
    7    0.0042
    8    0.0029
    9    0.0022
   10    0.0021
   11    0.0010
   12    0.0010
   13    0.0007
   14    0.0003
   15    0.0003
   16    0.0002
   17    0.0002
   18    0.0002
   19    0.0001
   20    0.0001
   21    0.0001
   22    0.0001
   23    0.0000
   24    0.0000
   25    0.0000
 
  MP2 natural orbitals output to ./h2o_freq.mp2nos
 
  Using symmetry


                         mp2 ENERGY GRADIENTS

    atom               coordinates                        gradient
                 x          y          z           x          y          z
   1 O       0.000000   0.000000   0.101805    0.000000   0.000000  -0.000173
   2 H       1.539432   0.000000  -0.986269   -0.002048   0.000000   0.000086
   3 H      -1.539432   0.000000  -0.986269    0.002048  -0.000000   0.000086
 
                 ----------------------------------------
                 |  Time  |  1-e(secs)   |  2-e(secs)   |
                 ----------------------------------------
                 |  CPU   |       0.00   |       0.01   |
                 ----------------------------------------
                 |  WALL  |       0.00   |       0.01   |
                 ----------------------------------------
 -----------------------
 Performance information
 -----------------------

 Timer overhead =  0.00D+00 seconds/call

               Nr. of calls         CPU time (s)                 Wall time (s)                GFlops
             ---------------    -------------------     ------------------------------   -------------------
Name         Min   Avg   Max    Min     Avg     Max     Min     Avg     Max   Mx/calls   Min     Max     Sum
mp2: moin     2     2     2   4.20E-2 4.35E-2 4.50E-2  4.80E-2 4.80E-2 4.80E-2 2.40E-2   0.0     0.0     0.0   
mp2: make     2     2     2   2.00E-3 3.00E-3 4.00E-3  5.31E-3 5.98E-3 6.58E-3 3.29E-3   0.0     0.0     0.0   
mp2: pija     2     2     2    0.0     0.0     0.0     1.17E-3 1.17E-3 1.18E-3 5.88E-4   0.0     0.0     0.0   
mp2: wija     2     2     2    0.0    1.00E-3 2.00E-3  1.17E-3 1.18E-3 1.19E-3 5.93E-4   0.0     0.0     0.0   
mp2: lai      2     2     2    0.0    1.50E-3 4.00E-3  2.61E-3 2.62E-3 2.62E-3 1.31E-3   0.0     0.0     0.0   
mp2: back     2     2     2   1.00E-3 2.00E-3 4.00E-3  6.37E-3 6.37E-3 6.37E-3 3.18E-3   0.0     0.0     0.0   
mp2: nons     2     2     2   4.30E-2 5.65E-2 6.70E-2  4.30E-2 5.68E-2 6.72E-2 3.36E-2   0.0     0.0     0.0   
mp2: laif     1     1     1   1.10E-2 1.12E-2 1.20E-2  1.19E-2 1.19E-2 1.19E-2 1.19E-2   0.0     0.0     0.0   
mp2: cphf     1     1     1   2.20E-2 3.07E-2 3.40E-2  3.37E-2 3.37E-2 3.37E-2 3.37E-2   0.0     0.0     0.0   
mp2: wijf     1     1     1   1.10E-2 1.15E-2 1.20E-2  1.18E-2 1.18E-2 1.18E-2 1.18E-2   0.0     0.0     0.0   
mp2: sep      1     1     1   2.60E-2 2.90E-2 3.00E-2  2.95E-2 2.95E-2 2.95E-2 2.95E-2   0.0     0.0     0.0   
mp2: tota     1     1     1   0.25    0.28    0.29     0.34    0.34    0.34    0.34      0.0     0.0     0.0   

 The average no. of pstat calls per process was 1.90D+01
 with a timing overhead of 0.00D+00s


  Step       Energy      Delta E   Gmax     Grms     Xrms     Xmax   Walltime
  ---- ---------------- -------- -------- -------- -------- -------- --------
@    1     -75.77665748 -1.6D-03  0.00172  0.00155  0.02875  0.05775      2.4
                                                                    



                                Z-matrix (autoz)
                                -------- 

 Units are Angstrom for bonds and degrees for angles
 
      Type          Name      I     J     K     L     M      Value     Gradient
      ----------- --------  ----- ----- ----- ----- ----- ---------- ----------
    1 Stretch                  1     2                       0.99757   -0.00172
    2 Stretch                  1     3                       0.99757   -0.00172
    3 Bend                     2     1     3               109.49446   -0.00111
 
                                 NWChem SCF Module
                                 -----------------
 
 
                     H2O+ : 6-31g** UMP2 geometry optimization
 
 

  ao basis        = "ao basis"
  functions       =    25
  atoms           =     3
  alpha electrons =     5
  beta  electrons =     4
  charge          =   1.00
  wavefunction    = UHF 
  input vectors   = ./h2o_freq.movecs
  output vectors  = ./h2o_freq.movecs
  use symmetry    = T
  symmetry adapt  = T
 

 Forming initial guess at       2.4s


 Starting SCF solution at       2.4s



       Final UHF  results 
       ------------------ 

         Total SCF energy =    -75.627636674884
      One electron energy =   -117.427646010648
      Two electron energy =     33.007872341723
 Nuclear repulsion energy =      8.792136994041

                       Sz =      0.5000
                 Sz(Sz+1) =      0.7500
                      S^2 =      0.7571

        Time for solution =      0.0s


                   NWChem MP2 Semi-direct Energy/Gradient Module
                   ---------------------------------------------
 
 
                     H2O+ : 6-31g** UMP2 geometry optimization
 
 
  Basis functions       =     25
  Molecular orbitals    =     25
  Frozen core           =      0
  Frozen virtuals       =      0
  Active alpha occupied =      5
  Active beta occupied  =      4
  Active alpha virtual  =     20
  Active beta virtual   =     21
  Use MO symmetry       = T
  Use skeleton AO sym   = T

  AO/Fock/Back tols     =   1.0D-09  1.0D-09  1.0D-09

 GA uses MA = F    GA memory limited = T

 Available: 
  local mem=  1.15D+07
 global mem=  2.62D+07
 local disk=  1.09D+07
   1 passes of   5:         392343                       3990                      8621.
 
 Semi-direct pass number   1 of   1  for UHF alpha       at        2.5s
Node 0 wrote      0.1 Mb in      0.0 s     Agg I/O rate:    65.0 Mb/s
 Done moints_semi at        2.5s
 Done maket at        2.5s
 Done multipass loop at        2.5s

 GA uses MA = F    GA memory limited = T

 Available: 
  local mem=  1.15D+07
 global mem=  2.62D+07
 local disk=  1.09D+07
   1 passes of   4:         391425                       3402                      8290.
 
 Semi-direct pass number   1 of   1  for UHF beta        at        2.5s
Node 0 wrote      0.1 Mb in      0.0 s     Agg I/O rate:     0.0 Mb/s
 Done moints_semi at        2.5s
 Done maket at        2.6s
 Done multipass loop at        2.6s


          -------------------------------------------
          SCF energy                 -75.627636674884
          Correlation energy          -0.149038974883
          Singlet pairs                0.000000000000
          Triplet pairs                0.000000000000
          Total MP2 energy           -75.776675649767
          -------------------------------------------

 -----------------------
 Performance information
 -----------------------

 Timer overhead =  1.00D-07 seconds/call

               Nr. of calls         CPU time (s)                 Wall time (s)                GFlops
             ---------------    -------------------     ------------------------------   -------------------
Name         Min   Avg   Max    Min     Avg     Max     Min     Avg     Max   Mx/calls   Min     Max     Sum
mp2: moin     2     2     2   4.00E-2 4.17E-2 4.30E-2  4.91E-2 4.91E-2 4.91E-2 2.46E-2   0.0     0.0     0.0   
mp2: make     2     2     2   9.99E-4 1.50E-3 2.00E-3  2.23E-3 2.59E-3 3.13E-3 1.57E-3   0.0     0.0     0.0   
mp2: tota     1     1     1   6.90E-2 7.40E-2 7.70E-2  9.13E-2 9.13E-2 9.13E-2 9.13E-2   0.0     0.0     0.0   

 The average no. of pstat calls per process was 5.00D+00
 with a timing overhead of 5.00D-07s

 Line search: 
     step= 1.00 grad=-3.2D-05 hess= 1.4D-05 energy=    -75.776676 mode=downhill
 new step= 1.16                   predicted energy=    -75.776676

          --------
          Step   2
          --------
 
 
                         Geometry "geometry" -> "geometry"
                         ---------------------------------
 
 Output coordinates in angstroms (scale by  1.889725989 to convert to a.u.)
 
  No.       Tag          Charge          X              Y              Z
 ---- ---------------- ---------- -------------- -------------- --------------
    1 O                    8.0000     0.00000000     0.00000000     0.05215325
    2 H                    1.0000     0.81952420     0.00000000    -0.52105137
    3 H                    1.0000    -0.81952420     0.00000000    -0.52105137
 
      Atomic Mass 
      ----------- 
 
      O                 15.994910
      H                  1.007825
 

 Effective nuclear repulsion energy (a.u.)       8.7889158652

            Nuclear Dipole moment (a.u.) 
            ----------------------------
        X                 Y               Z
 ---------------- ---------------- ----------------
     0.0000000000     0.0000000000    -1.1808457888
 
      Symmetry information
      --------------------
 
 Group name             C2v       
 Group number             16
 Group order               4
 No. of unique centers     2
 
      Symmetry unique atoms
 
     1    2
 
                                 NWChem SCF Module
                                 -----------------
 
 
                     H2O+ : 6-31g** UMP2 geometry optimization
 
 

  ao basis        = "ao basis"
  functions       =    25
  atoms           =     3
  alpha electrons =     5
  beta  electrons =     4
  charge          =   1.00
  wavefunction    = UHF 
  input vectors   = ./h2o_freq.movecs
  output vectors  = ./h2o_freq.movecs
  use symmetry    = T
  symmetry adapt  = T
 

 Forming initial guess at       2.6s


 Starting SCF solution at       2.6s



       Final UHF  results 
       ------------------ 

         Total SCF energy =    -75.627624789842
      One electron energy =   -117.422876968100
      Two electron energy =     33.006336313029
 Nuclear repulsion energy =      8.788915865229

                       Sz =      0.5000
                 Sz(Sz+1) =      0.7500
                      S^2 =      0.7571

        Time for solution =      0.0s


                   NWChem MP2 Semi-direct Energy/Gradient Module
                   ---------------------------------------------
 
 
                     H2O+ : 6-31g** UMP2 geometry optimization
 
 
  Basis functions       =     25
  Molecular orbitals    =     25
  Frozen core           =      0
  Frozen virtuals       =      0
  Active alpha occupied =      5
  Active beta occupied  =      4
  Active alpha virtual  =     20
  Active beta virtual   =     21
  Use MO symmetry       = T
  Use skeleton AO sym   = T

  AO/Fock/Back tols     =   1.0D-09  1.0D-09  1.0D-09

 GA uses MA = F    GA memory limited = T

 Available: 
  local mem=  1.15D+07
 global mem=  2.62D+07
 local disk=  1.09D+07
   1 passes of   5:        1488443                       4627                     13313.
 
 Semi-direct pass number   1 of   1  for UHF alpha       at        2.7s
Node 0 wrote      0.1 Mb in      0.0 s     Agg I/O rate:     0.0 Mb/s
 Done moints_semi at        2.7s
 Done maket at        2.7s
 Done pijab at        2.7s
 Done wijab at        2.7s
 Done lai at        2.7s
 Done nonsep at        2.8s
 Done multipass loop at        2.8s

 GA uses MA = F    GA memory limited = T

 Available: 
  local mem=  1.15D+07
 global mem=  2.62D+07
 local disk=  1.09D+07
   1 passes of   4:        1487499                       4040                     12794.
 
 Semi-direct pass number   1 of   1  for UHF beta        at        2.8s
Node 0 wrote      0.1 Mb in      0.0 s     Agg I/O rate:     0.0 Mb/s
 Done moints_semi at        2.8s
 Done maket at        2.8s
 Done pijab at        2.8s
 Done wijab at        2.8s
 Done lai at        2.8s
 Done nonsep at        2.9s
 Done multipass loop at        2.9s


          -------------------------------------------
          SCF energy                 -75.627624789842
          Correlation energy          -0.149051230649
          Singlet pairs                0.000000000000
          Triplet pairs                0.000000000000
          Total MP2 energy           -75.776676020491
          -------------------------------------------

                                NWChem CPHF Module
                                ------------------
 
 
    scftype = UHF 
     nalpha =    5
      nbeta =    4
  variables =      184
  tolerance =   1.0D-04
  max. iter =  100


 #quartets = 1.953D+03 #integrals = 1.805D+04 #direct =  0.0% #cached =100.0%


 Integral file          = ./h2o_freq.aoints.0
 Record size in doubles =    65536    No. of integs per rec  =    43688
 Max. records in memory =        2    Max. records in file   = 47499998
 No. of bits per label  =        8    No. of bits per value  =       64


File balance: exchanges=     0  moved=     0  time=   0.0

 SCF residual:   2.440429231792004E-007

            ----- linear solve (tol: 1.0E-04 prod-acc: 3.0E-10) -----

               iter nbas    rnorm     rnorm-scal   ratio     time
               ---- ---- ----------- ----------- --------- -------
                  1    1  1.2500E-02  3.0459E-01    0.0000     1.5
                  2    2  3.9488E-03  9.6221E-02    0.3159     1.5
                  3    3  1.3018E-03  3.1721E-02    0.3297     1.5
                  4    4  3.2293E-04  7.8689E-03    0.2481     1.5
                  5    5  5.1258E-05  1.2490E-03    0.1587     1.5
                  6    6  1.2152E-05  2.9611E-04    0.2371     1.5
                  7    7  2.6750E-06  6.5182E-05    0.2201     1.5

 CPHF converged to   6.5D-05 in    7 iters


 Parallel integral file used       4 records with       0 large values

                Dipole Moments (a.u.)
                --------------
         Nuclear       SCF       SCF+MP2
       ----------- ----------- -----------
 X       0.000000    0.000000    0.000000
 Y       0.000000   -0.000000   -0.000000
 Z      -1.180846   -1.053531   -1.023550
 

 MP2 alpha    natural orbital occupation numbers


              1      
    1    1.0000
    2    0.9952
    3    0.9913
    4    0.9881
    5    0.9869
    6    0.0090
    7    0.0081
    8    0.0053
    9    0.0039
   10    0.0023
   11    0.0022
   12    0.0021
   13    0.0021
   14    0.0019
   15    0.0003
   16    0.0003
   17    0.0002
   18    0.0002
   19    0.0001
   20    0.0001
   21    0.0001
   22    0.0001
   23    0.0000
   24    0.0000
   25    0.0000

 MP2 beta     natural orbital occupation numbers


              1      
    1    1.0000
    2    0.9922
    3    0.9878
    4    0.9869
    5    0.0094
    6    0.0081
    7    0.0042
    8    0.0029
    9    0.0022
   10    0.0021
   11    0.0010
[...]
                                 internuclear angles
 ------------------------------------------------------------------------------
        center 1       |       center 2       |       center 3       |  degrees
 ------------------------------------------------------------------------------
    2 H                |   1 O                |   3 H                |   110.30
 ------------------------------------------------------------------------------
                            number of included internuclear angles:          1
 ==============================================================================




 Task  times  cpu:        1.5s     wall:        2.5s
 
 
                                NWChem Input Module
                                -------------------
 
 
                          H2O+ : 6-31g** UMP2 frequencies
                          -------------------------------
 
 
                   NWChem Nuclear Hessian and Frequency Analysis
                   ---------------------------------------------
 
 
 
                         NWChem Finite-difference Hessian
                         --------------------------------
 
 

 Saving state for mp2 with suffix hess
        ./h2o_freq.movecs
 
  
 initial hessian

 zero matrix

  
 atom:   1 xyz: 1(+) wall time:       3.9      date:  Fri Jul 11 10:44:22 2014

 SCF residual:   2.953280779485607E-007
 atom:   1 xyz: 1(-) wall time:       4.3      date:  Fri Jul 11 10:44:22 2014

 SCF residual:   2.953280716147593E-007
 atom:   1 xyz: 2(+) wall time:       4.7      date:  Fri Jul 11 10:44:22 2014

 SCF residual:   3.761613702183611E-007
 atom:   1 xyz: 2(-) wall time:       5.2      date:  Fri Jul 11 10:44:23 2014

 SCF residual:   3.761613678513423E-007
 atom:   1 xyz: 3(+) wall time:       5.6      date:  Fri Jul 11 10:44:23 2014

 SCF residual:   2.324001695836808E-007
 atom:   1 xyz: 3(-) wall time:       6.1      date:  Fri Jul 11 10:44:24 2014

 SCF residual:   2.395225190264363E-007
 atom:   3 xyz: 1(+) wall time:       6.5      date:  Fri Jul 11 10:44:24 2014

 SCF residual:   1.680087297005006E-007
 atom:   3 xyz: 1(-) wall time:       6.9      date:  Fri Jul 11 10:44:25 2014

 SCF residual:   1.694209458742848E-007
 atom:   3 xyz: 2(+) wall time:       7.4      date:  Fri Jul 11 10:44:25 2014

 SCF residual:   1.265248178529699E-007
 atom:   3 xyz: 2(-) wall time:       7.8      date:  Fri Jul 11 10:44:25 2014

 SCF residual:   1.265248200907917E-007
 atom:   3 xyz: 3(+) wall time:       8.2      date:  Fri Jul 11 10:44:26 2014

 SCF residual:   1.896259152219119E-007
 atom:   3 xyz: 3(-) wall time:       8.7      date:  Fri Jul 11 10:44:26 2014

 SCF residual:   1.908432690791406E-007
  
  finite difference hessian delta =   1.000000000000000E-003

              1        2        3        4        5        6        7        8
    1    0.5973   0.0000   0.0000  -0.2986   0.0000   0.2079  -0.2986   0.0000
    2    0.0000  -0.0000   0.0000   0.0000  -0.0000   0.0000   0.0000  -0.0000
    3    0.0000   0.0000   0.3594   0.1634   0.0000  -0.1797  -0.1634   0.0000
    4   -0.2986   0.0000   0.1634   0.3185   0.0000  -0.1857  -0.0199   0.0000
    5    0.0000  -0.0000   0.0000   0.0000   0.0000   0.0000   0.0000   0.0000
    6    0.2079   0.0000  -0.1797  -0.1857   0.0000   0.1623  -0.0223   0.0000
    7   -0.2986   0.0000  -0.1634  -0.0199   0.0000  -0.0223   0.3185   0.0000
    8    0.0000  -0.0000   0.0000   0.0000   0.0000   0.0000   0.0000   0.0000
    9   -0.2079   0.0000  -0.1797   0.0223   0.0000   0.0175   0.1857   0.0000

              9      
    1   -0.2079
    3   -0.1797
    4    0.0223
    6    0.0175
    7    0.1857
    9    0.1623
  

  finite difference derivative dipole; delta =   1.000000000000000E-003

  
  
 X vector of derivative dipole (au) [debye/angstrom]
 d_dipole_x/<atom=   1,x> =    -0.1902     [   -0.9137]
 d_dipole_x/<atom=   1,y> =     0.0000     [    0.0000]
 d_dipole_x/<atom=   1,z> =     0.0000     [    0.0000]
 d_dipole_x/<atom=   2,x> =     0.5951     [    2.8585]
 d_dipole_x/<atom=   2,y> =     0.0000     [    0.0000]
 d_dipole_x/<atom=   2,z> =    -0.0535     [   -0.2569]
 d_dipole_x/<atom=   3,x> =     0.5951     [    2.8585]
 d_dipole_x/<atom=   3,y> =     0.0000     [    0.0000]
 d_dipole_x/<atom=   3,z> =     0.0535     [    0.2569]
  
 Y vector of derivative dipole (au) [debye/angstrom]
 d_dipole_y/<atom=   1,x> =     0.0000     [    0.0000]
 d_dipole_y/<atom=   1,y> =    -0.0366     [   -0.1757]
 d_dipole_y/<atom=   1,z> =     0.0000     [    0.0000]
 d_dipole_y/<atom=   2,x> =     0.0000     [    0.0000]
 d_dipole_y/<atom=   2,y> =     0.5183     [    2.4894]
 d_dipole_y/<atom=   2,z> =     0.0000     [    0.0000]
 d_dipole_y/<atom=   3,x> =     0.0000     [    0.0000]
 d_dipole_y/<atom=   3,y> =     0.5183     [    2.4894]
 d_dipole_y/<atom=   3,z> =     0.0000     [    0.0000]
  
 Z vector of derivative dipole (au) [debye/angstrom]
 d_dipole_z/<atom=   1,x> =     0.0000     [    0.0000]
 d_dipole_z/<atom=   1,y> =     0.0000     [    0.0000]
 d_dipole_z/<atom=   1,z> =     0.1074     [    0.5160]
 d_dipole_z/<atom=   2,x> =    -0.0532     [   -0.2558]
 d_dipole_z/<atom=   2,y> =     0.0000     [    0.0000]
 d_dipole_z/<atom=   2,z> =     0.4463     [    2.1435]
 d_dipole_z/<atom=   3,x> =     0.0532     [    0.2558]
 d_dipole_z/<atom=   3,y> =     0.0000     [    0.0000]
 d_dipole_z/<atom=   3,z> =     0.4463     [    2.1435]
  
  
  triangle hessian written to ./h2o_freq.hess
  derivative dipole written to ./h2o_freq.fd_ddipole

 Deleting state for mp2 with suffix hess
        ./h2o_freq.movecs
 
 
 
  Vibrational analysis via the FX method 
 
  See chapter 2 in "Molecular Vibrations" by Wilson, Decius and Cross
 
  Vib: Default input used 
 
  Nuclear Hessian passed symmetry test 
 


 ---------------------------- Atom information ----------------------------
     atom    #        X              Y              Z            mass
 --------------------------------------------------------------------------
    O        1  0.0000000D+00  0.0000000D+00  9.5835415D-02  1.5994910D+01
    H        2  1.5498088D+00  0.0000000D+00 -9.8328435D-01  1.0078250D+00
    H        3 -1.5498088D+00  0.0000000D+00 -9.8328435D-01  1.0078250D+00
 --------------------------------------------------------------------------




          ----------------------------------------------------
          MASS-WEIGHTED NUCLEAR HESSIAN (Hartree/Bohr/Bohr/Kamu)
          ----------------------------------------------------


              1           2           3           4           5           6           7           8           9
   ----- ----- ----- ----- -----
    1   3.73424D+01
    2   0.00000D+00-8.89551D-05
    3   0.00000D+00 0.00000D+00 2.24713D+01
    4  -7.43810D+01 0.00000D+00 4.07053D+01 3.16021D+02
    5   0.00000D+00-1.38745D-03 0.00000D+00 0.00000D+00 2.20619D-03
    6   5.17897D+01 0.00000D+00-4.47615D+01-1.84244D+02 0.00000D+00 1.60993D+02
    7  -7.43810D+01 0.00000D+00-4.07053D+01-1.97017D+01 0.00000D+00-2.20802D+01 3.16021D+02
    8   0.00000D+00-1.38745D-03 0.00000D+00 0.00000D+00 3.32115D-03 0.00000D+00 0.00000D+00 2.20619D-03
    9  -5.17897D+01 0.00000D+00-4.47615D+01 2.20802D+01 0.00000D+00 1.73281D+01 1.84244D+02 0.00000D+00 1.60993D+02



          -------------------------------------------------
          NORMAL MODE EIGENVECTORS IN CARTESIAN COORDINATES
          -------------------------------------------------
                 (Frequencies expressed in cm-1)

                    1           2           3           4           5           6
 
 Frequency         -5.43       -4.32       -2.98        2.54        9.84       12.74
 
           1     0.00000     0.00000     0.00000    -0.20745     0.12081     0.00000
           2     0.00000     0.23850     0.00000     0.00000     0.00000    -0.07507
           3     0.00000     0.00000    -0.23563    -0.00000    -0.00000     0.00000
           4     0.00000     0.00000    -0.00000    -0.34226    -0.26644     0.00000
           5     0.70436     0.21147     0.00000     0.00000     0.00000     0.67186
           6     0.00000     0.00000    -0.23563    -0.19362    -0.55616     0.00000
           7     0.00000     0.00000     0.00000    -0.34226    -0.26644     0.00000
           8    -0.70436     0.21147     0.00000     0.00000     0.00000     0.67186
           9     0.00000     0.00000    -0.23563     0.19362     0.55616     0.00000

                    7           8           9
 
 Frequency       1484.77     3460.16     3551.49
 
           1     0.00000    -0.00000     0.06994
           2     0.00000     0.00000     0.00000
           3    -0.06910     0.04713    -0.00000
           4     0.39688     0.58190    -0.55497
           5     0.00000     0.00000     0.00000
           6     0.54837    -0.37401     0.38642
           7    -0.39688    -0.58190    -0.55497
           8     0.00000     0.00000     0.00000
           9     0.54837    -0.37401    -0.38642



 ----------------------------------------------------------------------------
 Normal Eigenvalue ||         Derivative Dipole Moments (debye/angs)
  Mode   [cm**-1]  ||      [d/dqX]             [d/dqY]           [d/dqZ]
 ------ ---------- || ------------------ ------------------ -----------------
    1       -5.428 ||       0.000               0.000             0.000
    2       -4.321 ||       0.000               1.011             0.000
    3       -2.980 ||      -0.000               0.000             1.132
    4        2.536 ||      -1.668               0.000            -0.000
    5        9.843 ||      -1.348               0.000            -0.000
    6       12.743 ||       0.000               3.358             0.000
    7     1484.768 ||      -0.000               0.000             2.112
    8     3460.157 ||       0.000               0.000            -1.877
    9     3551.490 ||       3.435               0.000             0.000
 ----------------------------------------------------------------------------



  
  
 ----------------------------------------------------------------------------
 Normal Eigenvalue ||                 Infra Red Intensities
  Mode   [cm**-1]  || [atomic units] [(debye/angs)**2] [(KM/mol)] [arbitrary]
 ------ ---------- || -------------- ----------------- ---------- -----------
    1       -5.428 ||    0.000000           0.000         0.000       0.000
    2       -4.321 ||    0.044304           1.022        43.190       2.423
    3       -2.980 ||    0.055520           1.281        54.124       3.037
    4        2.536 ||    0.120550           2.781       117.518       6.593
    5        9.843 ||    0.078748           1.817        76.767       4.307
    6       12.743 ||    0.488854          11.278       476.560      26.737
    7     1484.768 ||    0.193383           4.461       188.519      10.577
    8     3460.157 ||    0.152668           3.522       148.829       8.350
    9     3551.490 ||    0.511497          11.801       498.633      27.976
 ----------------------------------------------------------------------------



 
 
        Vibrational analysis via the FX method 
  --- with translations and rotations projected out ---
  --- via the Eckart algorithm                      ---
 Projected Nuclear Hessian trans-rot subspace norm:2.4887D-33
                         (should be close to zero!) 


From the projected analysis 
The Zero-Point Energy (Kcal/mol) =          12.14987318

 center of mass
 --------------
 x =   0.00000000 y =   0.00000000 z =  -0.02493416

 moments of inertia (a.u.)
 ------------------
           2.084534086690           0.000000000000           0.000000000000
           0.000000000000           6.925938453963           0.000000000000
           0.000000000000           0.000000000000           4.841404367273

 Rotational Constants
 --------------------
 A=  28.879439 cm-1  ( 41.550143 K)
 B=  12.434445 cm-1  ( 17.889993 K)
 C=   8.691988 cm-1  ( 12.505553 K)


 Temperature                      =   298.15K
 frequency scaling parameter      =   1.0000

 Zero-Point correction to Energy  =   12.140 kcal/mol  (  0.019347 au)
 Thermal correction to Energy     =   13.920 kcal/mol  (  0.022184 au)
 Thermal correction to Enthalpy   =   14.513 kcal/mol  (  0.023127 au)

 Total Entropy                    =   45.246 cal/mol-K
   - Translational                =   34.593 cal/mol-K (mol. weight =  18.0106)
   - Rotational                   =   10.641 cal/mol-K (symmetry #  =        2)
   - Vibrational                  =    0.013 cal/mol-K

 Cv (constant volume heat capacity) =    6.038 cal/mol-K
   - Translational                  =    2.979 cal/mol-K
   - Rotational                     =    2.979 cal/mol-K
   - Vibrational                    =    0.079 cal/mol-K



          -------------------------------------------------
          NORMAL MODE EIGENVECTORS IN CARTESIAN COORDINATES
          -------------------------------------------------
             (Projected Frequencies expressed in cm-1)

                    1           2           3           4           5           6
 
 P.Frequency       -0.00       -0.00       -0.00        0.00        0.00        0.00
 
           1     0.01637    -0.23565    -0.04279     0.00000     0.00000     0.00000
           2     0.00000     0.00000     0.00000     0.25004     0.00000     0.00000
           3    -0.22007    -0.00000    -0.08421     0.00000     0.00000     0.00000
           4    -0.13016    -0.23552     0.34017     0.00000     0.00000     0.00000
           5     0.00000     0.00000     0.00000     0.00000     0.99611     0.00000
           6    -0.43052     0.00018     0.46580     0.00000     0.00000     0.00000
           7    -0.13016    -0.23552     0.34017     0.00000     0.00000     0.00000
           8     0.00000     0.00000     0.00000     0.00000     0.00000     0.99611
           9    -0.00963    -0.00018    -0.63422     0.00000     0.00000     0.00000

                    7           8           9
 
 P.Frequency     1484.77     3460.15     3551.50
 
           1     0.00000    -0.00000     0.06994
           2     0.00000     0.00000     0.00000
           3    -0.06910     0.04713     0.00000
           4     0.39688     0.58190    -0.55497
           5     0.00000     0.00000     0.00000
           6     0.54837    -0.37401     0.38642
           7    -0.39688    -0.58190    -0.55497
           8     0.00000     0.00000     0.00000
           9     0.54837    -0.37401    -0.38642



 ----------------------------------------------------------------------------
 Normal Eigenvalue ||    Projected Derivative Dipole Moments (debye/angs)
  Mode   [cm**-1]  ||      [d/dqX]             [d/dqY]           [d/dqZ]
 ------ ---------- || ------------------ ------------------ -----------------
    1       -0.000 ||       0.651               0.000             1.057
    2       -0.000 ||       1.131               0.000             0.000
    3       -0.000 ||      -1.701               0.000             0.404
    4        0.000 ||       0.000              -0.044             0.000
    5        0.000 ||       0.000               2.480             0.000
    6        0.000 ||       0.000               2.480             0.000
    7     1484.765 ||      -0.000               0.000             2.112
    8     3460.153 ||       0.000               0.000            -1.877
    9     3551.497 ||       3.435               0.000             0.000
 ----------------------------------------------------------------------------



  
  
 ----------------------------------------------------------------------------
 Normal Eigenvalue ||           Projected Infra Red Intensities
  Mode   [cm**-1]  || [atomic units] [(debye/angs)**2] [(KM/mol)] [arbitrary]
 ------ ---------- || -------------- ----------------- ---------- -----------
    1       -0.000 ||    0.066797           1.541        65.117       3.653
    2       -0.000 ||    0.055473           1.280        54.078       3.034
    3       -0.000 ||    0.132548           3.058       129.215       7.250
    4        0.000 ||    0.000084           0.002         0.082       0.005
    5        0.000 ||    0.266537           6.149       259.834      14.578
    6        0.000 ||    0.266537           6.149       259.834      14.578
    7     1484.765 ||    0.193384           4.462       188.520      10.577
    8     3460.153 ||    0.152667           3.522       148.827       8.350
    9     3551.497 ||    0.511497          11.801       498.633      27.976
 ----------------------------------------------------------------------------



 vib:animation  F

 Task  times  cpu:        3.7s     wall:        5.4s
 
 
                                NWChem Input Module
                                -------------------
 
 
 Summary of allocated global arrays
-----------------------------------
  No active global arrays



                         GA Statistics for process    0
                         ------------------------------

       create   destroy   get      put      acc     scatter   gather  read&inc
calls: 1.88e+04 1.88e+04 1.50e+05 5.71e+04 6.81e+04 2586        0     5951     
number of processes/call 1.24e+00 1.40e+00 1.27e+00 2.09e+00 0.00e+00
bytes total:             5.79e+07 2.62e+07 1.84e+07 1.89e+05 0.00e+00 4.76e+04
bytes remote:            1.93e+07 9.55e+06 9.29e+06 -4.16e+05 0.00e+00 0.00e+00
Max memory consumed for GA by this process: 61624 bytes
 
MA_summarize_allocated_blocks: starting scan ...
MA_summarize_allocated_blocks: scan completed: 0 heap blocks, 0 stack blocks
MA usage statistics:

	allocation statistics:
					      heap	     stack
					      ----	     -----
	current number of blocks	         0	         0
	maximum number of blocks	        26	        51
	current total bytes		         0	         0
	maximum total bytes		   1062168	  22510080
	maximum total K-bytes		      1063	     22511
	maximum total M-bytes		         2	        23
 
 
                                     CITATION
                                     --------
                Please cite the following reference when publishing
                           results obtained with NWChem:
 
                 M. Valiev, E.J. Bylaska, N. Govind, K. Kowalski,
              T.P. Straatsma, H.J.J. van Dam, D. Wang, J. Nieplocha,
                        E. Apra, T.L. Windus, W.A. de Jong
                 "NWChem: a comprehensive and scalable open-source
                  solution for large scale molecular simulations"
                      Comput. Phys. Commun. 181, 1477 (2010)
                           doi:10.1016/j.cpc.2010.04.018
 
                              AUTHORS & CONTRIBUTORS
                              ----------------------
          E. Apra, E. J. Bylaska, W. A. de Jong, N. Govind, K. Kowalski,
       T. P. Straatsma, M. Valiev, H. J. J. van Dam, D. Wang, T. L. Windus,
        J. Hammond, J. Autschbach, K. Bhaskaran-Nair, J. Brabec, K. Lopata,
     F. Aquino, S. Hirata, M. T. Hackler, J. Mullin, P. Nichols, R. Peverati,
    J. Pittner, Y. Zhao, P.-D. Fan, R. J. Harrison, M. Dupuis, D. Silverstein,
    D. M. A. Smith, J. Nieplocha, V. Tipparaju, M. Krishnan, B. E. Van Kuiken,
        A. Vazquez-Mayagoitia, L. Jensen, M. Swart, Q. Wu, T. Van Voorhis,
     A. A. Auer, M. Nooijen, L. D. Crosby, E. Brown, G. Cisneros, G. I. Fann,
     H. Fruchtl, J. Garza, K. Hirao, R. Kendall, J. A. Nichols, K. Tsemekhman,
      K. Wolinski, J. Anchell, D. Bernholdt, P. Borowski, T. Clark, D. Clerc,
      H. Dachsel, M. Deegan, K. Dyall, D. Elwood, E. Glendening, M. Gutowski,
      A. Hess, J. Jaffe, B. Johnson, J. Ju, R. Kobayashi, R. Kutteh, Z. Lin,
   R. Littlefield, X. Long, B. Meng, T. Nakajima, S. Niu, L. Pollack, M. Rosing,
   K. Glaesemann, G. Sandrone, M. Stave, H. Taylor, G. Thomas, J. H. van Lenthe,
                                A. Wong, Z. Zhang.

 Total times  cpu:        5.4s     wall:        9.2s
 
TACC: Shutdown complete. Exiting.
